
WARN: input file does not exist

System: uname_result(system='Darwin', node='Sarathchandras-MacBook-Pro.local', release='25.3.0', version='Darwin Kernel Version 25.3.0: Wed Jan 28 20:54:22 PST 2026; root:xnu-12377.81.4~5/RELEASE_ARM64_T8112', machine='arm64')  Threads 1
Python 3.11.5 (main, Sep 11 2023, 08:31:25) [Clang 14.0.6 ]
numpy 1.26.4  scipy 1.15.1
Date: Fri Apr 10 18:19:14 2026
PySCF version 2.4.0
PySCF path  /Users/sarath/anaconda3/lib/python3.11/site-packages/pyscf

[CONFIG] conf_file None
[INPUT] verbose = 5
[INPUT] max_memory = 4000 
[INPUT] num. atoms = 22
[INPUT] num. electrons = 84
[INPUT] charge = 0
[INPUT] spin (= nelec alpha-beta = 2S) = 0
[INPUT] symmetry 0 subgroup None
[INPUT] Mole.unit = angstrom
[INPUT] Cartesian GTO integrals (6d 10f)
[INPUT] Symbol           X                Y                Z      unit          X                Y                Z       unit  Magmom
[INPUT]  1 H      0.000000000000   2.061947000000   1.308539000000 AA    0.000000000000   3.896515113369   2.472780333312 Bohr   0.0
[INPUT]  2 H      0.000000000000  -2.061947000000   1.308539000000 AA    0.000000000000  -3.896515113369   2.472780333312 Bohr   0.0
[INPUT]  3 H      0.000000000000   2.156804000000  -1.184054000000 AA    0.000000000000   4.075768864366  -2.237537776696 Bohr   0.0
[INPUT]  4 H      0.000000000000  -2.156804000000  -1.184054000000 AA    0.000000000000  -4.075768864366  -2.237537776696 Bohr   0.0
[INPUT]  5 H      0.000000000000   0.000000000000  -2.475074000000 AA    0.000000000000   0.000000000000  -4.677211998032 Bohr   0.0
[INPUT]  6 C      0.000000000000   1.145417000000   0.721005000000 AA    0.000000000000   2.164524428421   1.362501984442 Bohr   0.0
[INPUT]  7 C      0.000000000000  -1.145417000000   0.721005000000 AA    0.000000000000  -2.164524428421   1.362501984442 Bohr   0.0
[INPUT]  8 C      0.000000000000   1.197637000000  -0.673735000000 AA    0.000000000000   2.263205926646  -1.273174630534 Bohr   0.0
[INPUT]  9 C      0.000000000000  -1.197637000000  -0.673735000000 AA    0.000000000000  -2.263205926646  -1.273174630534 Bohr   0.0
[INPUT] 10 C      0.000000000000   0.000000000000  -1.387901000000 AA    0.000000000000   0.000000000000  -2.622752778010 Bohr   0.0
[INPUT] 11 N      0.000000000000   0.000000000000   1.426610000000 AA    0.000000000000   0.000000000000   2.695902186566 Bohr   0.0
[INPUT] 12 H      5.000000000000   2.061947000000   1.308539000000 AA    9.448630622825   3.896515113369   2.472780333312 Bohr   0.0
[INPUT] 13 H      5.000000000000  -2.061947000000   1.308539000000 AA    9.448630622825  -3.896515113369   2.472780333312 Bohr   0.0
[INPUT] 14 H      5.000000000000   2.156804000000  -1.184054000000 AA    9.448630622825   4.075768864366  -2.237537776696 Bohr   0.0
[INPUT] 15 H      5.000000000000  -2.156804000000  -1.184054000000 AA    9.448630622825  -4.075768864366  -2.237537776696 Bohr   0.0
[INPUT] 16 H      5.000000000000   0.000000000000  -2.475074000000 AA    9.448630622825   0.000000000000  -4.677211998032 Bohr   0.0
[INPUT] 17 C      5.000000000000   1.145417000000   0.721005000000 AA    9.448630622825   2.164524428421   1.362501984442 Bohr   0.0
[INPUT] 18 C      5.000000000000  -1.145417000000   0.721005000000 AA    9.448630622825  -2.164524428421   1.362501984442 Bohr   0.0
[INPUT] 19 C      5.000000000000   1.197637000000  -0.673735000000 AA    9.448630622825   2.263205926646  -1.273174630534 Bohr   0.0
[INPUT] 20 C      5.000000000000  -1.197637000000  -0.673735000000 AA    9.448630622825  -2.263205926646  -1.273174630534 Bohr   0.0
[INPUT] 21 C      5.000000000000   0.000000000000  -1.387901000000 AA    9.448630622825   0.000000000000  -2.622752778010 Bohr   0.0
[INPUT] 22 N      5.000000000000   0.000000000000   1.426610000000 AA    9.448630622825   0.000000000000   2.695902186566 Bohr   0.0
[INPUT] ---------------- BASIS SET ---------------- 
[INPUT] l, kappa, [nprim/nctr], expnt,             c_1 c_2 ...
[INPUT] C
[INPUT] 0    0    [8    /2   ]  6665              0.000692 -0.000146
                                1000              0.005329 -0.001154
                                228               0.027077 -0.005725
                                64.71             0.101718 -0.023312
                                21.06             0.27474 -0.063955
                                7.495             0.448564 -0.149981
                                2.797             0.285074 -0.127262
                                0.5215            0.015204 0.544529
[INPUT] 0    0    [1    /1   ]  0.1596               1
[INPUT] 1    0    [3    /1   ]  9.439             0.038109
                                2.002             0.20948
                                0.5456            0.508557
[INPUT] 1    0    [1    /1   ]  0.1517               1
[INPUT] 2    0    [1    /1   ]  0.55                 1
[INPUT] H
[INPUT] 0    0    [3    /1   ]  13.01             0.019685
                                1.962             0.137977
                                0.4446            0.478148
[INPUT] 0    0    [1    /1   ]  0.122                1
[INPUT] 1    0    [1    /1   ]  0.727                1
[INPUT] N
[INPUT] 0    0    [8    /2   ]  9046              0.0007 -0.000153
                                1357              0.005389 -0.001208
                                309.3             0.027406 -0.005992
                                87.73             0.103207 -0.024544
                                28.56             0.278723 -0.067459
                                10.21             0.44854 -0.158078
                                3.838             0.278238 -0.121831
                                0.7466            0.01544 0.549003
[INPUT] 0    0    [1    /1   ]  0.2248               1
[INPUT] 1    0    [3    /1   ]  13.55             0.039919
                                2.917             0.217169
                                0.7973            0.510319
[INPUT] 1    0    [1    /1   ]  0.2185               1
[INPUT] 2    0    [1    /1   ]  0.817                1

nuclear repulsion = 583.197272592674
number of shells = 90
number of NR pGTOs = 394
number of NR cGTOs = 230
basis = cc-pVDZ
ecp = {}
CPU time:         2.39


******** <class 'pyscf.scf.hf.RHF'> ********
method = RHF
initial guess = minao
damping factor = 0
level_shift factor = 0
DIIS = <class 'pyscf.scf.diis.CDIIS'>
diis_start_cycle = 1
diis_space = 8
SCF conv_tol = 1e-09
SCF conv_tol_grad = None
SCF max_cycles = 50
direct_scf = True
direct_scf_tol = 1e-13
chkfile to save SCF result = /Users/sarath/Documents/Research/ExaGrad/benchmarks/rose_master_pyridine_dimer/H10-C10-N2_singlet.chk
max_memory 4000 MB (current use 0 MB)
Overwritten attributes  get_occ  of <class 'pyscf.scf.hf.RHF'>
Set gradient conv threshold to 3.16228e-05
Initial guess from minao.
E1 = -1821.2341765780775  E_coul = 741.4339443505268
init E= -496.602959634877
cond(S) = 19500.058887660787
    CPU time for initialize scf     19.01 sec, wall time     18.21 sec
  HOMO = -0.24129869125876  LUMO = 0.0104887901657494
  mo_energy =
[-1.56278156e+01 -1.56278143e+01 -1.13279403e+01 -1.13279294e+01
 -1.13242570e+01 -1.13242540e+01 -1.13220730e+01 -1.13220718e+01
 -1.13180865e+01 -1.13180840e+01 -1.13175763e+01 -1.13175751e+01
 -1.72540382e+00 -1.72410087e+00 -1.38263038e+00 -1.38195812e+00
 -1.31146108e+00 -1.31068642e+00 -9.29964776e-01 -9.29616840e-01
 -9.21072639e-01 -9.20673335e-01 -6.75670004e-01 -6.75136858e-01
 -5.93041186e-01 -5.92721948e-01 -5.37500512e-01 -5.37391458e-01
 -4.72167935e-01 -4.70932034e-01 -4.70499647e-01 -4.67879606e-01
 -4.44899140e-01 -4.44602966e-01 -3.56889639e-01 -3.56666629e-01
 -3.02090229e-01 -2.98658881e-01 -2.58673250e-01 -2.58569757e-01
 -2.45417367e-01 -2.41298691e-01  1.04887902e-02  1.45248828e-02
  4.41832834e-02  4.84330787e-02  1.34223150e-01  1.42293723e-01
  1.83835528e-01  1.93132332e-01  1.94779999e-01  2.02906667e-01
  2.11813518e-01  2.18798400e-01  2.19991592e-01  2.26312475e-01
  2.26916694e-01  2.32008438e-01  3.06356215e-01  3.13997525e-01
  3.82667500e-01  3.85849501e-01  4.05514057e-01  4.08380033e-01
  4.14555298e-01  4.19292542e-01  4.99003245e-01  5.12274592e-01
  5.20425433e-01  5.27331814e-01  5.74316723e-01  5.83121693e-01
  6.14176985e-01  6.15799889e-01  6.23437294e-01  6.43968042e-01
  6.48222262e-01  6.49107389e-01  6.52139774e-01  6.59585072e-01
  6.60332160e-01  6.62248357e-01  6.74511299e-01  6.82375936e-01
  7.10840452e-01  7.12764525e-01  7.15959233e-01  7.25545947e-01
  7.48079291e-01  7.52184905e-01  7.53517290e-01  7.84046237e-01
  7.84895810e-01  7.88831094e-01  7.94407355e-01  8.11064753e-01
  8.14668219e-01  8.16193960e-01  8.64887808e-01  8.66090891e-01
  8.94281032e-01  8.97740531e-01  9.38922431e-01  9.43288230e-01
  9.96561451e-01  9.98436761e-01  1.01464808e+00  1.01801731e+00
  1.02187660e+00  1.02260718e+00  1.06415128e+00  1.06914375e+00
  1.08593254e+00  1.09232098e+00  1.13007103e+00  1.13009292e+00
  1.13561700e+00  1.14174463e+00  1.16343947e+00  1.17459842e+00
  1.17641488e+00  1.18444510e+00  1.20691624e+00  1.21350091e+00
  1.23817402e+00  1.24210906e+00  1.24342954e+00  1.24833018e+00
  1.29007410e+00  1.30295766e+00  1.33376108e+00  1.33618361e+00
  1.38945375e+00  1.39531652e+00  1.44238063e+00  1.44916861e+00
  1.46019639e+00  1.46506768e+00  1.51825252e+00  1.52342547e+00
  1.66414883e+00  1.69426427e+00  1.69427700e+00  1.69852738e+00
  1.70221057e+00  1.71413890e+00  1.71787875e+00  1.73163845e+00
  1.78485550e+00  1.79250074e+00  1.79303358e+00  1.80040215e+00
  1.84380441e+00  1.84386332e+00  1.85134177e+00  1.85367529e+00
  1.85454035e+00  1.85562403e+00  1.85745298e+00  1.86696592e+00
  1.92843888e+00  1.93095334e+00  1.93235109e+00  1.94992162e+00
  1.95018210e+00  1.96220909e+00  1.96520721e+00  1.97585856e+00
  2.01324309e+00  2.01620299e+00  2.07462651e+00  2.07592616e+00
  2.08776210e+00  2.09233078e+00  2.10464085e+00  2.11224996e+00
  2.16128931e+00  2.16296367e+00  2.16711017e+00  2.16900919e+00
  2.21517029e+00  2.23030728e+00  2.23078665e+00  2.23083982e+00
  2.23709226e+00  2.24813015e+00  2.30873986e+00  2.31001288e+00
  2.34563377e+00  2.35746624e+00  2.46728397e+00  2.47430219e+00
  2.57904771e+00  2.58016381e+00  2.63689408e+00  2.64399864e+00
  2.67117135e+00  2.68082916e+00  2.70332366e+00  2.71325707e+00
  2.71355088e+00  2.71439958e+00  2.74982230e+00  2.75219553e+00
  2.75258203e+00  2.76823602e+00  2.77698508e+00  2.79038252e+00
  2.89128231e+00  2.90389945e+00  2.99634548e+00  3.00300995e+00
  3.02328148e+00  3.03046315e+00  3.09213674e+00  3.10059864e+00
  3.11621941e+00  3.12103380e+00  3.15352133e+00  3.15601227e+00
  3.31621915e+00  3.33775389e+00  3.63407225e+00  3.63916136e+00
  3.65968802e+00  3.66821423e+00  4.09106395e+00  4.09468712e+00
  4.75440509e+00  4.80066170e+00]
E1 = -1821.2961662455045  E_coul = 744.8201427324072
cycle= 1 E= -493.278750920424  delta_E= 3.32  |g|= 0.644  |ddm|= 4.58
    CPU time for cycle= 1      4.68 sec, wall time      3.54 sec
  HOMO = -0.374884376612871  LUMO = 0.0858101778096288
  mo_energy =
[-15.50375393 -15.50375375 -11.36050713 -11.36050701 -11.36048892
 -11.36048884 -11.34380194 -11.34380181 -11.29958762 -11.29958748
 -11.2995597  -11.29955954  -1.26738512  -1.2673097   -1.12260126
  -1.12250557  -1.07021999  -1.07011504  -0.89123651  -0.89114511
  -0.8762538   -0.87617055  -0.74256902  -0.74243974  -0.67514409
  -0.67501869  -0.67427602  -0.67424307  -0.61630138  -0.61617086
  -0.59166222  -0.59156208  -0.55872367  -0.55572118  -0.52891036
  -0.52881273  -0.40131565  -0.39885368  -0.39024871  -0.39019071
  -0.37824913  -0.37488438   0.08581018   0.08997043   0.100979
   0.10557847   0.15766375   0.16653837   0.19702881   0.20709654
   0.21254326   0.22176593   0.2403302    0.24102386   0.24892553
   0.24991323   0.31130917   0.31791497   0.36018563   0.36598374
   0.40374376   0.40609178   0.43819146   0.44351928   0.44822746
   0.4509576    0.53165772   0.54213207   0.54642067   0.54842348
   0.60397628   0.61163541   0.61972203   0.65306067   0.65933104
   0.66016197   0.66311559   0.66516027   0.67099127   0.67593689
   0.6777812    0.68169454   0.68592907   0.69134737   0.71672366
   0.72793697   0.76836312   0.772383     0.77436236   0.77526274
   0.7769587    0.80496973   0.80524078   0.80876923   0.81396591
   0.8350669    0.84206868   0.84683111   0.90957659   0.91026576
   0.9307653    0.93426839   0.95082023   0.95517414   1.02582421
   1.02685188   1.03787105   1.03860704   1.04070296   1.0408182
   1.11498577   1.11845694   1.13343486   1.13344247   1.15177014
   1.15755167   1.18061794   1.18595098   1.19082089   1.19866789
   1.20248111   1.21099402   1.2116068    1.21955874   1.23861482
   1.24265159   1.27166552   1.27589061   1.32365932   1.33832485
   1.34749726   1.3506942    1.41548236   1.42219467   1.460541
   1.46661733   1.48183368   1.4881166    1.54437374   1.54924806
   1.68886862   1.69971701   1.71464704   1.71811887   1.72219471
   1.72363871   1.7308139    1.7478116    1.80453663   1.80976371
   1.81168183   1.81664816   1.85653903   1.85882824   1.86039664
   1.86262508   1.87051993   1.8775579    1.88391199   1.88972131
   1.94076275   1.94218369   1.96210013   1.97109911   1.97360694
   1.97768049   1.98645767   1.99677197   2.03433106   2.03763109
   2.08133656   2.08273739   2.1137967    2.12064942   2.12163141
   2.12929785   2.18642152   2.18731663   2.19035532   2.19486732
   2.22873094   2.24304483   2.24332224   2.24359509   2.24390458
   2.25401156   2.33325766   2.33442171   2.36960766   2.38202215
   2.5101338    2.51662409   2.63876972   2.64026029   2.65146132
   2.65755224   2.69353788   2.70377149   2.71329507   2.72450721
   2.76303596   2.76580233   2.76936395   2.78554457   2.78702697
   2.78741252   2.8029115    2.81596913   2.92193361   2.93390058
   3.01849108   3.0254742    3.03836111   3.04533029   3.12242336
   3.13038152   3.15514794   3.1590629    3.22162693   3.22439345
   3.35489194   3.37823948   3.6755412    3.68023813   3.68396706
   3.68503597   4.111409     4.11487427   4.86194495   4.9070267 ]
E1 = -1824.7559998973516  E_coul = 748.1489257309672
cycle= 2 E= -493.409801573711  delta_E= -0.131  |g|= 0.261  |ddm|= 0.865
    CPU time for cycle= 2      4.04 sec, wall time      2.42 sec
  HOMO = -0.335068575262827  LUMO = 0.113869225652376
  mo_energy =
[-15.61832213 -15.61832195 -11.26600987 -11.26600977 -11.26599259
 -11.26599251 -11.24195737 -11.24195725 -11.22882425 -11.22882413
 -11.22875842 -11.2287583   -1.25783611  -1.25777591  -1.07888102
  -1.07876407  -1.02460709  -1.0244959   -0.84999902  -0.84991892
  -0.84878876  -0.84868872  -0.71051994  -0.71039081  -0.64647405
  -0.64642917  -0.64565202  -0.64552635  -0.58426214  -0.58413144
  -0.56456392  -0.56446286  -0.53603655  -0.53325086  -0.50556191
  -0.50546355  -0.4175131   -0.41746252  -0.37920719  -0.37630447
  -0.33874363  -0.33506858   0.11386923   0.11870975   0.13372126
   0.13893711   0.17890593   0.18820642   0.21051255   0.22099442
   0.22433517   0.23425717   0.24846191   0.2544124    0.25761785
   0.26368114   0.33602277   0.34398735   0.37585909   0.38343983
   0.43647095   0.438705     0.46548442   0.46973995   0.47004267
   0.47273372   0.55050988   0.5570863    0.55898968   0.57265609
   0.63177361   0.63836444   0.65529708   0.67325548   0.68250906
   0.69337259   0.6949641    0.70257688   0.706698     0.71578145
   0.71596905   0.7170715    0.72597213   0.7270356    0.74869361
   0.76248076   0.77793122   0.78443876   0.80009243   0.80433294
   0.8050366    0.83606298   0.84415127   0.84613528   0.85115833
   0.87327624   0.8759771    0.88025635   0.9306626    0.93121942
   0.9638939    0.96677009   0.98450224   0.98897231   1.04451696
   1.04595378   1.06583      1.06670481   1.07632436   1.07896215
   1.12416514   1.1285565    1.14354872   1.14997446   1.17481183
   1.17483179   1.17787516   1.18349941   1.21075227   1.21236404
   1.21913074   1.22318634   1.24729176   1.25459333   1.27721402
   1.28184381   1.29513622   1.29978354   1.33439072   1.34813588
   1.37054488   1.37339124   1.43488082   1.4406426    1.48636335
   1.49403092   1.50917359   1.51341428   1.55680194   1.56195574
   1.71068399   1.73460748   1.74187296   1.74509283   1.74881964
   1.75814221   1.76214761   1.77901214   1.82865236   1.83522951
   1.83606417   1.84273777   1.88418787   1.88747701   1.89102668
   1.89233096   1.90008655   1.90214662   1.9046378    1.91325561
   1.96737637   1.96870526   1.98077138   1.98867482   1.99234965
   2.00832019   2.01133589   2.01781066   2.06747535   2.07080991
   2.12457996   2.12540818   2.14821861   2.15206549   2.1580651
   2.1665848    2.21573416   2.22165011   2.22340742   2.22552788
   2.2608504    2.27373989   2.27374363   2.27564617   2.28419628
   2.29510814   2.35768834   2.35889374   2.39496549   2.40700105
   2.51619426   2.52286648   2.63433345   2.63555323   2.68942974
   2.69602022   2.72767594   2.73769121   2.75503583   2.76613019
   2.77220915   2.77249228   2.79991682   2.80256838   2.80575373
   2.82159743   2.84046345   2.8536186    2.94761678   2.9591503
   3.06251232   3.06933462   3.08819768   3.09516876   3.15612251
   3.16435003   3.18180168   3.18657122   3.21904394   3.22201992
   3.37527236   3.39651478   3.69637702   3.70167823   3.71759375
   3.72604755   4.15559339   4.15917315   4.80969023   4.85539348]
E1 = -1823.955767725129  E_coul = 747.333550801565
cycle= 3 E= -493.42494433089  delta_E= -0.0151  |g|= 0.115  |ddm|= 0.338
    CPU time for cycle= 3      4.49 sec, wall time      3.53 sec
  HOMO = -0.338193452644359  LUMO = 0.116898687448384
  mo_energy =
[-15.5498165  -15.54981634 -11.26817688 -11.26817678 -11.26815956
 -11.26815949 -11.26329362 -11.2632935  -11.24601034 -11.24601022
 -11.24596029 -11.24596017  -1.24249604  -1.24242895  -1.08322113
  -1.08311105  -1.02569024  -1.02557856  -0.85158838  -0.85149353
  -0.84612936  -0.84605024  -0.71184349  -0.71171554  -0.64851811
  -0.64847986  -0.64720891  -0.64708724  -0.5893289   -0.58920185
  -0.56790389  -0.56780443  -0.53118256  -0.5281946   -0.50997269
  -0.50987634  -0.40574916  -0.40569912  -0.37634745  -0.37355009
  -0.34188803  -0.33819345   0.11689869   0.12167392   0.13283267
   0.13803391   0.17795485   0.18730191   0.21032501   0.22083732
   0.22526802   0.23521944   0.24992249   0.254581     0.25914494
   0.26393976   0.33884505   0.3467643    0.38111787   0.38825541
   0.43445657   0.43666191   0.46440168   0.46937525   0.47282933
   0.47581213   0.553279     0.5576664    0.55979766   0.57165941
   0.63224457   0.63904151   0.65109181   0.67522355   0.68511902
   0.68816967   0.69049179   0.69782233   0.70142828   0.70956626
   0.71151865   0.71256492   0.72103846   0.72358335   0.74541328
   0.75969494   0.78817103   0.79433667   0.80065808   0.80343269
   0.80523527   0.83404572   0.83810228   0.8430692    0.84811092
   0.86745622   0.87312382   0.87750718   0.93404858   0.93459258
   0.95970615   0.96272947   0.98228817   0.98681642   1.05131278
   1.05303884   1.06169331   1.0626484    1.07124985   1.07365323
   1.12615917   1.13024532   1.1667406    1.16954849   1.16956082
   1.17284903   1.17631289   1.18206319   1.21191765   1.2195899
   1.22022347   1.22983595   1.24407041   1.25130734   1.27384631
   1.27821933   1.29442293   1.29896928   1.33664562   1.35084329
   1.37384013   1.37676386   1.43835036   1.44437819   1.4854951
   1.49281127   1.5083217    1.5130366    1.56012092   1.56517241
   1.71295896   1.73164246   1.7424052    1.74593269   1.74978578
   1.75525796   1.76084272   1.77765479   1.83325148   1.83471147
   1.84057707   1.8420863    1.88367967   1.88695988   1.88931034
   1.89147501   1.90081347   1.90168127   1.90879264   1.91591308
   1.96730855   1.96867459   1.98342936   1.99191504   1.99544199
   2.00890729   2.01474306   2.01801425   2.06577724   2.06908372
   2.11984594   2.12097642   2.14611504   2.1507419    2.15504323
   2.16317164   2.21733481   2.21850824   2.22238033   2.22498716
   2.25984161   2.27251146   2.27252734   2.27471441   2.27920731
   2.29022476   2.35865486   2.35983839   2.39902003   2.41102879
   2.52763217   2.53422515   2.64538072   2.64670128   2.68663399
   2.69323849   2.72623648   2.73637923   2.75255978   2.7634127
   2.78848197   2.7888001    2.79984777   2.80255633   2.80411991
   2.82030761   2.8398678    2.85284325   2.94979002   2.96134545
   3.05953349   3.06636493   3.08321479   3.0902011    3.15793916
   3.16605753   3.18486365   3.18931039   3.2322796    3.23513545
   3.3790759    3.40098131   3.70256901   3.70763335   3.71540631
   3.72382493   4.15110709   4.15462655   4.84080219   4.88618632]
E1 = -1823.9445643153206  E_coul = 747.3186920688502
cycle= 4 E= -493.428599653797  delta_E= -0.00366  |g|= 0.0269  |ddm|= 0.142
    CPU time for cycle= 4      4.09 sec, wall time      3.43 sec
  HOMO = -0.340578917407792  LUMO = 0.114727789569627
  mo_energy =
[-15.56637326 -15.56637309 -11.28031754 -11.28031743 -11.28030136
 -11.28030128 -11.26411384 -11.26411372 -11.24561504 -11.24561491
 -11.24556705 -11.24556692  -1.25001314  -1.24994831  -1.08467467
  -1.08456338  -1.028862    -1.02875149  -0.8538914   -0.8537967
  -0.84958473  -0.84950652  -0.7141027   -0.71397619  -0.65297545
  -0.65293646  -0.64815674  -0.64803552  -0.59198101  -0.59185566
  -0.5703788   -0.57028054  -0.5347877   -0.53183341  -0.51286407
  -0.51276916  -0.41244608  -0.41239635  -0.37863356  -0.37579725
  -0.34426788  -0.34057892   0.11472779   0.11946994   0.13023417
   0.13539446   0.1782042    0.18753712   0.21014325   0.22064514
   0.22478334   0.23473899   0.24943809   0.25481474   0.25864408
   0.26415769   0.33663481   0.34445229   0.3785114    0.38575489
   0.43402175   0.43622214   0.46377975   0.4686178    0.47058797
   0.47356197   0.55145925   0.55587013   0.557978     0.56974894
   0.6304548    0.63720074   0.64967786   0.67199057   0.68180432
   0.68641036   0.68907928   0.697013     0.69977678   0.70901402
   0.71019975   0.71172518   0.72054479   0.72193232   0.74377373
   0.75763268   0.78265053   0.78890547   0.79814948   0.80115006
   0.80270117   0.83181619   0.83792322   0.84148005   0.84656022
   0.8672404    0.87159979   0.87602256   0.93029803   0.93085018
   0.95879067   0.9617786    0.97949136   0.98396196   1.04830846
   1.04996909   1.06014647   1.06105983   1.07068725   1.07314661
   1.12402567   1.12821628   1.16073678   1.16687763   1.16748325
   1.16749888   1.17496868   1.18066669   1.21002282   1.21593333
   1.21827456   1.22630314   1.24245556   1.2496985    1.27210128
   1.276511     1.29317354   1.29775326   1.33468908   1.34873593
   1.37014796   1.37299959   1.4343981    1.4403514    1.48420724
   1.49147786   1.50643767   1.51112317   1.55751539   1.56258785
   1.70976494   1.73147012   1.73975372   1.74399798   1.74779073
   1.75497433   1.75897358   1.7758447    1.83039888   1.83329067
   1.8377828    1.84075177   1.88318833   1.88659265   1.8874205
   1.89125387   1.89877862   1.90062982   1.90517413   1.91256162
   1.96622216   1.96759148   1.98115381   1.98984672   1.99349409
   2.0074341    2.0123338    2.0167494    2.06297949   2.06630616
   2.11956108   2.12060443   2.14386045   2.14833271   2.15322738
   2.16133986   2.21349935   2.21689058   2.22077746   2.22112384
   2.25766006   2.27054663   2.27056561   2.27260722   2.27923037
   2.29026253   2.3567238    2.35791852   2.39492833   2.40690201
   2.5220866    2.52871139   2.6400569    2.64134679   2.68612405
   2.69282757   2.7247079    2.73482527   2.75095564   2.76182738
   2.78182497   2.78213509   2.79742309   2.80007017   2.80208699
   2.81805252   2.8370496    2.85004391   2.94656539   2.95825334
   3.05763593   3.06448097   3.08138276   3.08830764   3.15440918
   3.1625681    3.18094493   3.18541094   3.22605342   3.22889134
   3.37515313   3.39700966   3.69838822   3.70351877   3.71215893
   3.72059079   4.14980828   4.15334699   4.83224456   4.8777038 ]
E1 = -1824.0909305244113  E_coul = 747.4648449829107
cycle= 5 E= -493.428812948827  delta_E= -0.000213  |g|= 0.00687  |ddm|= 0.037
    CPU time for cycle= 5      3.58 sec, wall time      2.59 sec
  HOMO = -0.340167276111451  LUMO = 0.115133942924002
  mo_energy =
[-15.56562694 -15.56562677 -11.27805623 -11.27805612 -11.27803985
 -11.27803977 -11.2654408  -11.26544068 -11.24658096 -11.24658084
 -11.24653373 -11.2465336   -1.24879762  -1.24873246  -1.08473393
  -1.08462273  -1.02826801  -1.02815716  -0.85370854  -0.85361366
  -0.84932723  -0.84924889  -0.71402212  -0.71389571  -0.65264091
  -0.65260219  -0.64842313  -0.64830225  -0.59179095  -0.59166629
  -0.57062702  -0.57052926  -0.53398171  -0.5310078   -0.51291266
  -0.51281804  -0.4119692   -0.41191969  -0.37812144  -0.37528829
  -0.34386212  -0.34016728   0.11513394   0.11987308   0.13052372
   0.13568783   0.17786306   0.18719587   0.21000899   0.22050737
   0.22471858   0.23465785   0.24948317   0.2545344    0.2586878
   0.26387882   0.33696317   0.34477682   0.37888953   0.3860886
   0.43374533   0.43594256   0.46353041   0.46840355   0.47075033
   0.4737259    0.55174976   0.55618451   0.55825013   0.57007668
   0.63057738   0.63732291   0.65003586   0.67250264   0.68228627
   0.68671621   0.68934231   0.6969323    0.7001535    0.70867436
   0.71031166   0.71150559   0.72011641   0.72203125   0.74418652
   0.75793744   0.78340005   0.78964711   0.79849916   0.80153027
   0.80299789   0.83222735   0.83764748   0.84125607   0.84632823
   0.86696417   0.87147785   0.87589449   0.93076275   0.93131827
   0.95844008   0.96142729   0.9797266    0.98421325   1.04890902
   1.0505927    1.06017848   1.06110786   1.07025288   1.07269625
   1.12425114   1.12840357   1.16179991   1.16759679   1.16761099
   1.16792801   1.17516042   1.18086716   1.21006441   1.21632584
   1.21833161   1.22667051   1.24257088   1.24982001   1.27210185
   1.2764999    1.29308538   1.29765736   1.33487576   1.34895531
   1.3706256    1.37349634   1.43498124   1.4409588    1.48425864
   1.49155603   1.50662824   1.51130585   1.55794027   1.56300461
   1.71018436   1.73097814   1.7400188    1.74398933   1.74780451
   1.75451915   1.7590576    1.77592491   1.83070191   1.83322498
   1.83805875   1.84065028   1.88282676   1.88623879   1.88754126
   1.89090817   1.89892177   1.90035814   1.90557654   1.91288649
   1.96625071   1.96761473   1.98121123   1.98992998   1.99357768
   2.00716875   2.01244723   2.01643121   2.06328544   2.06659872
   2.1189923    2.12005881   2.14382549   2.14834074   2.15308461
   2.16121625   2.21403072   2.21661384   2.22050334   2.22166012
   2.25790757   2.27080361   2.27081698   2.27283526   2.27856332
   2.28958012   2.35664734   2.35784025   2.39557611   2.40757256
   2.52295756   2.5295837    2.64074626   2.64204116   2.68566097
   2.69231424   2.72446676   2.73458282   2.75062511   2.76150981
   2.78261481   2.7829269    2.79765838   2.80032278   2.80213796
   2.81817428   2.83721759   2.85021896   2.94690009   2.9585334
   3.05741876   3.06425564   3.08126948   3.08822838   3.15465402
   3.16281471   3.18137034   3.18584831   3.22686022   3.22971052
   3.37563078   3.39748967   3.69858497   3.70369984   3.71270844
   3.72113626   4.14968909   4.15322048   4.83314504   4.87859199]
E1 = -1824.0685825356359  E_coul = 747.4424715922252
cycle= 6 E= -493.428838350737  delta_E= -2.54e-05  |g|= 0.00318  |ddm|= 0.0112
    CPU time for cycle= 6      3.74 sec, wall time      2.86 sec
  HOMO = -0.340127887767933  LUMO = 0.115416380032123
  mo_energy =
[-15.56591117 -15.565911   -11.2781241  -11.27812399 -11.27810776
 -11.27810768 -11.26402253 -11.26402241 -11.24625817 -11.24625805
 -11.2462085  -11.24620837  -1.24896088  -1.24889578  -1.08437585
  -1.08426444  -1.02822283  -1.02811195  -0.85349766  -0.85340262
  -0.84927676  -0.84919838  -0.71388929  -0.71376289  -0.65251002
  -0.65247117  -0.64833425  -0.64821337  -0.59176999  -0.59164539
  -0.57036316  -0.57026528  -0.53387248  -0.53089639  -0.51279731
  -0.51270279  -0.41235832  -0.41230878  -0.37777133  -0.37493181
  -0.34382327  -0.34012789   0.11541638   0.12015507   0.13050916
   0.13567387   0.1780012    0.1873345    0.21001183   0.22051049
   0.22476837   0.23471357   0.24944423   0.25460083   0.25865015
   0.26394341   0.33710912   0.34492363   0.37882844   0.3860423
   0.43396145   0.43615862   0.46369911   0.46856325   0.47076009
   0.47373858   0.55174533   0.5562387    0.55824999   0.57012403
   0.63061532   0.63735155   0.65022353   0.67245279   0.68223672
   0.68687332   0.68953983   0.69714381   0.70031421   0.70896133
   0.71047685   0.71178739   0.72041903   0.72226008   0.74426612
   0.75814506   0.78323445   0.78948337   0.79853736   0.80158356
   0.80303585   0.83228339   0.83797469   0.8415354    0.84661084
   0.86728624   0.87156794   0.87598036   0.93071974   0.93127294
   0.95854891   0.96153212   0.97989888   0.98438019   1.04881725
   1.05049442   1.06036289   1.06128728   1.07054941   1.07299839
   1.12430719   1.12847053   1.16163666   1.16776846   1.16783939
   1.16785414   1.17520823   1.18090709   1.21014815   1.2162586
   1.21841284   1.22662073   1.24265105   1.24989902   1.27235663
   1.27676214   1.29319668   1.29777123   1.33489549   1.34896625
   1.37060938   1.37347873   1.43494906   1.44091925   1.48435881
   1.49165446   1.50673667   1.5114094    1.55789417   1.56296159
   1.71022126   1.7312391    1.74011411   1.74408832   1.7478961
   1.75477081   1.75920317   1.77607058   1.83063142   1.8333362
   1.83799436   1.84077372   1.88296424   1.88637606   1.88763629
   1.89105788   1.89900353   1.90044777   1.9056154    1.9129451
   1.96624713   1.96761159   1.98129573   1.99000117   1.99364817
   2.00728119   2.01251788   2.01655764   2.06337188   2.06668751
   2.11929513   2.12035297   2.1439836    2.14847172   2.15330804
   2.16144255   2.21401967   2.2169043    2.22079254   2.22165262
   2.25792856   2.27083384   2.27084818   2.27285474   2.27891433
   2.28993342   2.35681306   2.35800642   2.39549949   2.40749521
   2.52273267   2.52935822   2.64057496   2.64186754   2.68587485
   2.69253359   2.72461677   2.73473016   2.75096603   2.76184864
   2.78236666   2.78267777   2.79763807   2.8003046    2.80229645
   2.81831392   2.83734234   2.85034931   2.9469173    2.95856286
   3.05770329   3.06454806   3.08151603   3.08846595   3.15473275
   3.1628915    3.18142606   3.18590928   3.22669192   3.22954175
   3.37564984   3.3974965    3.69863803   3.70376063   3.71273773
   3.72116722   4.14992346   4.15345798   4.83280265   4.87825414]
E1 = -1824.0649785783046  E_coul = 747.4388604065311
cycle= 7 E= -493.4288455791  delta_E= -7.23e-06  |g|= 0.00133  |ddm|= 0.00685
    CPU time for cycle= 7      4.15 sec, wall time      2.44 sec
  HOMO = -0.340167298442664  LUMO = 0.115367673359416
  mo_energy =
[-15.56633163 -15.56633146 -11.27797073 -11.27797062 -11.2779544
 -11.27795433 -11.26444368 -11.26444356 -11.24632555 -11.24632543
 -11.24627671 -11.24627658  -1.24909141  -1.24902636  -1.08452167
  -1.08441029  -1.02823928  -1.02812842  -0.85352846  -0.8534334
  -0.84934989  -0.84927156  -0.71391863  -0.7137922   -0.65258497
  -0.65254611  -0.64833208  -0.64821119  -0.59175991  -0.59163527
  -0.57047248  -0.57037458  -0.53392518  -0.5309485   -0.51283526
  -0.51274067  -0.41254717  -0.41249762  -0.3778359   -0.37499677
  -0.34386198  -0.3401673    0.11536767   0.12010353   0.13045658
   0.13562071   0.17798854   0.18732136   0.21002718   0.22052579
   0.22478477   0.23472935   0.24946453   0.25460116   0.25867038
   0.26394427   0.33708569   0.34489727   0.37878781   0.38600253
   0.4339259    0.43612303   0.4636599    0.46852586   0.47073561
   0.47371411   0.5517376    0.5562134    0.55824132   0.57009515
   0.63059299   0.63732903   0.65018156   0.67243313   0.68221025
   0.68682425   0.68948939   0.69711513   0.70027323   0.70892064
   0.71046064   0.71172645   0.7203546    0.72220102   0.74426784
   0.75808903   0.78319249   0.7894405    0.79855936   0.80158997
   0.80306821   0.83227925   0.8379036    0.84147876   0.8465549
   0.86721593   0.87155747   0.8759716    0.93072919   0.93128326
   0.95849727   0.96147878   0.97988509   0.98436811   1.04876705
   1.05044286   1.06032455   1.06124969   1.07049265   1.07294218
   1.12424914   1.12841225   1.16149994   1.16763504   1.16778071
   1.16779529   1.17522244   1.18092382   1.21010416   1.21621621
   1.21836836   1.22657833   1.24265295   1.24990019   1.27232149
   1.27672546   1.29314906   1.29772513   1.33483237   1.34890012
   1.37060624   1.37347432   1.43491474   1.44088316   1.48432315
   1.49162182   1.50669259   1.51136173   1.55787455   1.562942
   1.71016408   1.73120978   1.74006306   1.74405738   1.74786688
   1.75474107   1.75917774   1.77604652   1.83064026   1.83334658
   1.83800226   1.84078135   1.88294547   1.88636638   1.88761445
   1.89105303   1.89897938   1.90042419   1.90553887   1.91287736
   1.96626453   1.96762834   1.98122315   1.98996413   1.99362403
   2.00727831   2.01242236   2.01655575   2.06335862   2.06667273
   2.1192396    2.12030002   2.14393018   2.14841805   2.15325623
   2.16138934   2.2140019    2.21681935   2.22070891   2.22163358
   2.2579466    2.27083341   2.27084791   2.27287405   2.27884697
   2.28986599   2.35671366   2.35790734   2.39551496   2.40751042
   2.5226925    2.52932235   2.64045025   2.64174183   2.68580853
   2.69247139   2.72457433   2.73468545   2.75089745   2.76177887
   2.78223028   2.78254128   2.7976766    2.80034341   2.80228498
   2.8183085    2.83730842   2.85031133   2.94686739   2.95851099
   3.05761763   3.0644593    3.08147487   3.08842812   3.1546968
   3.162857     3.18134183   3.18582523   3.22659264   3.22944189
   3.37556916   3.39741424   3.69855427   3.70367577   3.71271824
   3.72114836   4.1498331    4.15336715   4.8325529    4.87800599]
E1 = -1824.0679698864328  E_coul = 747.4418503627811
cycle= 8 E= -493.428846930978  delta_E= -1.35e-06  |g|= 0.000552  |ddm|= 0.0025
    CPU time for cycle= 8      3.97 sec, wall time      2.37 sec
  HOMO = -0.340172352534383  LUMO = 0.115394226245129
  mo_energy =
[-15.56639904 -15.56639887 -11.27794103 -11.27794093 -11.27792472
 -11.27792464 -11.26424956 -11.26424944 -11.24636108 -11.24636095
 -11.24631174 -11.24631161  -1.24909873  -1.2490337   -1.08448631
  -1.08437492  -1.02823301  -1.02812215  -0.85350619  -0.85341111
  -0.84934618  -0.84926786  -0.71388747  -0.71376102  -0.6525697
  -0.65253083  -0.64834506  -0.64822417  -0.59174875  -0.5916241
  -0.57042747  -0.57032953  -0.53391184  -0.5309352   -0.51281787
  -0.51272326  -0.41258546  -0.41253591  -0.37779545  -0.37495589
  -0.34386649  -0.34017235   0.11539423   0.12012921   0.13044739
   0.13561133   0.1779962    0.18732914   0.21002256   0.22052102
   0.22480708   0.2347519    0.24946958   0.25460208   0.25867545
   0.26394527   0.33710156   0.34491194   0.3787877    0.38600369
   0.43394756   0.43614479   0.46366729   0.46853317   0.47072779
   0.47370662   0.55175097   0.55622855   0.5582547    0.57010822
   0.63059582   0.63733186   0.65019266   0.67242963   0.6822053
   0.68685948   0.68951211   0.69713173   0.70029917   0.70894926
   0.71047146   0.7117542    0.72038105   0.72222115   0.74426795
   0.75811102   0.78319844   0.78944625   0.79856958   0.80159427
   0.80308376   0.83227828   0.8379221    0.84152527   0.84660275
   0.86723369   0.87156318   0.87597635   0.93073842   0.9312926
   0.95848343   0.96146441   0.97993149   0.98441466   1.04876834
   1.0504437    1.06035067   1.06127578   1.07051393   1.07296375
   1.12425283   1.12841663   1.1614812    1.16761694   1.16780354
   1.16781812   1.1752267    1.18092828   1.21012095   1.21621212
   1.2183848    1.22657424   1.24265728   1.24990468   1.27236644
   1.27677012   1.29315869   1.29773529   1.33482927   1.34889744
   1.37061961   1.37348798   1.43490965   1.44087798   1.48433189
   1.49163198   1.50671723   1.51138471   1.55788473   1.56295233
   1.71016807   1.73122503   1.74007149   1.7440714    1.74788096
   1.75475553   1.7591987    1.77606781   1.83065267   1.83337248
   1.83801381   1.84080717   1.88295128   1.88637798   1.88763123
   1.89107091   1.89899566   1.90042488   1.90556135   1.91289925
   1.96626746   1.96763077   1.98123429   1.98998852   1.99365294
   2.00727716   2.01242908   2.01655504   2.06336708   2.06667996
   2.11926154   2.12032206   2.14394435   2.14842908   2.15327492
   2.1614081    2.21401247   2.21683848   2.22072838   2.22164474
   2.25795689   2.27084522   2.27085947   2.27288445   2.278876
   2.2898952    2.35672975   2.35792355   2.3955342    2.40752974
   2.52269663   2.5293274    2.64043454   2.64172575   2.68582001
   2.69248224   2.72457102   2.73468131   2.75093774   2.76181839
   2.7822023    2.78251323   2.79769354   2.80036159   2.80230944
   2.81833281   2.83732051   2.85032364   2.94686589   2.95850989
   3.05764798   3.06449037   3.08149521   3.08844768   3.15470446
   3.16286453   3.18136232   3.18584734   3.2265802    3.22942955
   3.37558079   3.39742356   3.69855103   3.70367312   3.7127397
   3.72116942   4.14986561   4.1533997    4.83249845   4.87795203]
E1 = -1824.0666733975809  E_coul = 747.4405535037698
cycle= 9 E= -493.428847301137  delta_E= -3.7e-07  |g|= 0.000204  |ddm|= 0.00149
    CPU time for cycle= 9      4.02 sec, wall time      2.31 sec
  HOMO = -0.340170881849428  LUMO = 0.115391076018561
  mo_energy =
[-15.56642427 -15.5664241  -11.27790158 -11.27790148 -11.27788526
 -11.27788519 -11.26423348 -11.26423335 -11.24637753 -11.24637741
 -11.24632813 -11.246328    -1.24910049  -1.24903546  -1.08448946
  -1.08437807  -1.02822951  -1.02811865  -0.8535      -0.85340491
  -0.84934649  -0.84926817  -0.71387879  -0.71375233  -0.6525714
  -0.65253253  -0.64835061  -0.64822974  -0.5917468   -0.59162216
  -0.57041904  -0.57032109  -0.53391399  -0.53093732  -0.51281938
  -0.51272477  -0.41259249  -0.41254294  -0.37779546  -0.37495579
  -0.34386498  -0.34017088   0.11539108   0.12012574   0.13044614
   0.13561024   0.17799499   0.18732805   0.210019     0.22051753
   0.22481569   0.23476063   0.24947226   0.25460034   0.25867831
   0.26394369   0.33710363   0.3449141    0.3787881    0.38600417
   0.43394909   0.43614633   0.46366422   0.46853052   0.47072415
   0.47370299   0.55175445   0.55622811   0.55825824   0.57010811
   0.63059266   0.63732873   0.65018928   0.67242438   0.68220071
   0.68686065   0.68951283   0.69712996   0.70029637   0.70895098
   0.71047232   0.71175228   0.72037789   0.72221999   0.74426487
   0.75811125   0.78320594   0.78945303   0.79857423   0.80159624
   0.8030906    0.83227817   0.83791808   0.84153375   0.84661179
   0.86722973   0.87155945   0.87597255   0.93074606   0.9313004
   0.95846956   0.96145046   0.97994458   0.98442802   1.04877086
   1.05044616   1.06035059   1.06127583   1.07051144   1.07296118
   1.12425123   1.12841501   1.16147428   1.16761053   1.16780413
   1.16781869   1.17522587   1.18092756   1.21012331   1.21620919
   1.21838695   1.22657166   1.24265419   1.24990076   1.27237502
   1.27677828   1.29315584   1.29773245   1.33482321   1.34889186
   1.37062525   1.37349382   1.43490902   1.44087745   1.48432917
   1.49162945   1.50671805   1.51138541   1.5578876    1.56295515
   1.71016734   1.7312228    1.74007128   1.74407163   1.74788143
   1.75475275   1.75920126   1.77607018   1.83065728   1.83337915
   1.83801791   1.84081362   1.88294769   1.88637597   1.88763033
   1.89107046   1.89899441   1.90042074   1.9055638    1.9129015
   1.96626426   1.96762746   1.98123222   1.98999423   1.99366042
   2.00727558   2.0124252    2.01655341   2.06336821   2.06668053
   2.11925859   2.12031967   2.14394407   2.14842829   2.15327482
   2.16140768   2.21401729   2.21683646   2.22072655   2.22164963
   2.25795869   2.27084377   2.27085815   2.27288609   2.27887417
   2.28989359   2.35672593   2.35791973   2.39554392   2.40753959
   2.52270228   2.52933351   2.64042898   2.64172009   2.68581288
   2.69247533   2.72456438   2.73467427   2.75094459   2.76182465
   2.78219778   2.7825087    2.79769933   2.80036795   2.80231487
   2.81833925   2.8373223    2.85032489   2.94686358   2.95850743
   3.0576485    3.06449098   3.08149615   3.08844868   3.15470595
   3.16286582   3.181364     3.18584928   3.22657838   3.22942769
   3.37558233   3.39742456   3.69854952   3.70367147   3.71274138
   3.72117109   4.149862     4.15339606   4.83248223   4.87793591]
E1 = -1824.0664173309822  E_coul = 747.4402973735
cycle= 10 E= -493.428847364808  delta_E= -6.37e-08  |g|= 6.52e-05  |ddm|= 0.000731
    CPU time for cycle= 10      4.10 sec, wall time      2.42 sec
  HOMO = -0.340169634129561  LUMO = 0.115389181614674
  mo_energy =
[-15.56643029 -15.56643012 -11.2778957  -11.27789559 -11.27787937
 -11.2778793  -11.26422872 -11.2642286  -11.24639719 -11.24639706
 -11.24634773 -11.2463476   -1.24909846  -1.24903343  -1.08449176
  -1.08438037  -1.0282318   -1.02812094  -0.85350159  -0.8534065
  -0.84934815  -0.84926983  -0.71387842  -0.71375197  -0.65257438
  -0.65253551  -0.64835636  -0.64823548  -0.59175031  -0.59162567
  -0.57041806  -0.5703201   -0.53391373  -0.53093701  -0.51282246
  -0.51272785  -0.4125942   -0.41254466  -0.37779569  -0.374956
  -0.34386375  -0.34016963   0.11538918   0.12012369   0.13044581
   0.13560986   0.17799357   0.18732654   0.2100169    0.22051531
   0.22481813   0.23476293   0.24947291   0.25459897   0.25867887
   0.26394229   0.33710358   0.34491357   0.37878887   0.38600474
   0.43394765   0.43614488   0.46366201   0.46852843   0.47072199
   0.47370078   0.5517557    0.55622811   0.55825928   0.57010746
   0.63059007   0.63732604   0.65018929   0.67242272   0.68219824
   0.68686054   0.68951132   0.69712884   0.70029814   0.70894841
   0.71046975   0.71175074   0.72037407   0.72221912   0.74426451
   0.75811271   0.78320864   0.78945592   0.79857402   0.80159584
   0.80309033   0.83227751   0.83791572   0.84153446   0.84661271
   0.86722708   0.87155462   0.87596765   0.93074651   0.9313009
   0.9584613    0.96144217   0.97994736   0.98443087   1.04877296
   1.05044837   1.06034854   1.0612739    1.07050748   1.07295717
   1.12425029   1.12841403   1.16147616   1.16761222   1.16780218
   1.16781674   1.17522383   1.18092568   1.21012425   1.21620871
   1.21838779   1.22657044   1.24265038   1.24989748   1.27237651
   1.27677968   1.29315352   1.29773024   1.33482138   1.34889021
   1.37062631   1.37349507   1.43490792   1.44087657   1.48432765
   1.49162788   1.50671785   1.51138535   1.55788921   1.56295673
   1.71016751   1.73121934   1.7400705    1.74406991   1.7478798
   1.7547496    1.75920051   1.77606955   1.83065769   1.83337917
   1.83801806   1.84081345   1.88294452   1.8863734    1.88762823
   1.89106833   1.89899233   1.90041773   1.90556506   1.91290235
   1.96626139   1.96762449   1.98123223   1.98999533   1.99366209
   2.00727183   2.01242521   2.0165496    2.06336611   2.06667819
   2.11925431   2.12031558   2.1439411    2.1484254    2.15327175
   2.16140456   2.21401698   2.21683338   2.22072349   2.22164941
   2.2579568    2.27084174   2.27085601   2.27288427   2.27887057
   2.28989004   2.35672445   2.35791827   2.39554596   2.40754172
   2.52270529   2.52933661   2.64042927   2.6417204    2.68580791
   2.69247017   2.72455852   2.73466831   2.75094464   2.7618246
   2.78219858   2.78250951   2.79769807   2.80036693   2.80231382
   2.81833857   2.83732023   2.85032276   2.94686094   2.95850478
   3.0576462    3.06448875   3.08149228   3.08844482   3.15470365
   3.16286346   3.18136369   3.18584911   3.22657805   3.22942736
   3.37558257   3.39742473   3.69854752   3.7036694    3.71274024
   3.72116991   4.14985893   4.15339296   4.83248158   4.87793522]
E1 = -1824.0663770305287  E_coul = 747.4402570681741
cycle= 11 E= -493.428847369681  delta_E= -4.87e-09  |g|= 1.48e-05  |ddm|= 0.000217
    CPU time for cycle= 11      3.83 sec, wall time      2.52 sec
  HOMO = -0.340167483094447  LUMO = 0.115389733774987
  mo_energy =
[-15.56643023 -15.56643006 -11.27789216 -11.27789205 -11.27787583
 -11.27787576 -11.26422746 -11.26422734 -11.2463939  -11.24639378
 -11.24634445 -11.24634432  -1.24909697  -1.24903194  -1.08449053
  -1.08437914  -1.02823037  -1.02811951  -0.85350045  -0.85340536
  -0.84934728  -0.84926897  -0.71387768  -0.71375122  -0.6525728
  -0.65253393  -0.6483562   -0.64823532  -0.59174948  -0.59162484
  -0.57041722  -0.57031926  -0.53391234  -0.5309356   -0.51282151
  -0.5127269   -0.41259412  -0.41254458  -0.37779474  -0.37495502
  -0.34386164  -0.34016748   0.11538973   0.12012427   0.13044706
   0.13561116   0.17799331   0.18732633   0.21001654   0.22051499
   0.22481805   0.23476288   0.24947273   0.25459853   0.25867873
   0.26394186   0.33710439   0.34491453   0.3787894    0.38600524
   0.43394793   0.43614516   0.46366229   0.46852874   0.47072252
   0.47370131   0.55175596   0.55622863   0.55825957   0.5701083
   0.63059061   0.63732659   0.65019055   0.67242323   0.68219909
   0.68686178   0.68951328   0.69712952   0.70029855   0.70894948
   0.71047142   0.71175112   0.72037452   0.72222022   0.74426548
   0.75811368   0.78320952   0.78945667   0.79857489   0.80159699
   0.80309107   0.83227883   0.83791663   0.8415351    0.84661335
   0.86722806   0.87155512   0.87596814   0.93074746   0.93130185
   0.95846167   0.96144254   0.97994835   0.98443187   1.04877352
   1.05044893   1.06034951   1.06127487   1.07050798   1.07295765
   1.12425083   1.12841454   1.16147653   1.16761267   1.16780348
   1.16781804   1.17522436   1.18092615   1.21012472   1.21620915
   1.21838831   1.22657113   1.24265131   1.24989815   1.27237745
   1.27678058   1.29315389   1.29773055   1.33482174   1.34889064
   1.37062724   1.373496     1.43490897   1.44087762   1.48432813
   1.49162841   1.50671868   1.51138612   1.55788975   1.56295726
   1.71016844   1.73121956   1.7400715    1.74407051   1.74788041
   1.75474972   1.75920132   1.7760703    1.83065819   1.8333796
   1.83801855   1.84081389   1.88294456   1.88637337   1.88762902
   1.89106833   1.89899309   1.90041779   1.90556607   1.91290325
   1.96626154   1.96762466   1.98123257   1.98999602   1.99366273
   2.00727202   2.01242565   2.01654973   2.06336721   2.06667929
   2.11925465   2.12031593   2.14394212   2.14842638   2.15327259
   2.16140544   2.21401816   2.21683417   2.2207243    2.2216506
   2.25795758   2.27084241   2.27085672   2.27288497   2.27887086
   2.2898903    2.35672503   2.35791885   2.39554704   2.40754284
   2.52270613   2.52933745   2.64043006   2.64172119   2.68580824
   2.69247044   2.72455911   2.73466891   2.75094533   2.76182531
   2.7821994    2.78251034   2.79769879   2.80036767   2.80231463
   2.81833942   2.83732132   2.85032386   2.9468619    2.95850565
   3.0576471    3.06448965   3.08149338   3.08844595   3.15470479
   3.1628646    3.18136489   3.18585033   3.22657899   3.22942832
   3.37558364   3.39742576   3.69854838   3.70367026   3.71274167
   3.72117134   4.14985992   4.15339396   4.83248195   4.8779356 ]
E1 = -1824.06633335777  E_coul = 747.4402133952477
cycle= 12 E= -493.428847369849  delta_E= -1.68e-10  |g|= 5.48e-06  |ddm|= 3.5e-05
    CPU time for cycle= 12      3.76 sec, wall time      3.17 sec
  HOMO = -0.34016766373495  LUMO = 0.115389654741813
  mo_energy =
[-15.56642813 -15.56642796 -11.27789214 -11.27789203 -11.27787581
 -11.27787574 -11.26422714 -11.26422702 -11.24639551 -11.24639539
 -11.24634605 -11.24634593  -1.24909672  -1.24903169  -1.08449085
  -1.08437947  -1.02823081  -1.02811995  -0.85350065  -0.85340556
  -0.84934726  -0.84926894  -0.71387772  -0.71375126  -0.65257281
  -0.65253394  -0.6483564   -0.64823552  -0.59174983  -0.59162519
  -0.57041707  -0.57031911  -0.53391236  -0.53093561  -0.5128215
  -0.51272689  -0.41259374  -0.4125442   -0.37779481  -0.37495509
  -0.34386182  -0.34016766   0.11538965   0.12012419   0.13044695
   0.13561104   0.17799327   0.18732628   0.21001646   0.2205149
   0.22481816   0.23476298   0.24947274   0.25459852   0.25867874
   0.26394185   0.33710438   0.34491449   0.37878944   0.38600527
   0.43394784   0.43614507   0.46366221   0.46852868   0.47072254
   0.47370133   0.55175607   0.55622847   0.55825968   0.57010808
   0.63059042   0.6373264    0.65019036   0.67242321   0.68219903
   0.68686146   0.68951287   0.69712938   0.70029848   0.7089492
   0.71047106   0.71175102   0.7203743    0.72222011   0.74426532
   0.75811371   0.78320973   0.7894569    0.79857484   0.80159686
   0.80309104   0.83227866   0.83791643   0.84153509   0.84661335
   0.86722784   0.87155481   0.87596783   0.93074753   0.93130192
   0.95846123   0.9614421    0.97994836   0.98443188   1.04877372
   1.05044915   1.06034924   1.0612746    1.07050779   1.07295745
   1.1242509    1.12841461   1.16147721   1.16761333   1.16780319
   1.16781775   1.17522413   1.18092594   1.21012478   1.21620938
   1.21838835   1.22657126   1.24265093   1.24989784   1.27237744
   1.27678057   1.29315377   1.29773045   1.33482177   1.34889068
   1.37062728   1.37349605   1.43490893   1.4408776    1.48432799
   1.49162825   1.50671856   1.51138604   1.55788982   1.56295733
   1.71016848   1.73121946   1.74007144   1.74407046   1.74788037
   1.75474965   1.75920122   1.77607021   1.83065823   1.83337958
   1.83801859   1.84081387   1.8829445    1.88637331   1.88762878
   1.89106826   1.89899287   1.90041779   1.90556615   1.91290329
   1.96626132   1.96762443   1.98123269   1.98999611   1.99366283
   2.00727197   2.01242579   2.01654968   2.063367     2.06667907
   2.11925443   2.12031572   2.14394191   2.1484262    2.15327243
   2.16140526   2.21401804   2.21683408   2.22072421   2.22165049
   2.25795734   2.27084214   2.27085644   2.27288475   2.27887072
   2.28989018   2.35672505   2.35791886   2.39554706   2.40754285
   2.52270644   2.52933775   2.64043035   2.64172148   2.68580799
   2.6924702    2.72455885   2.73466865   2.75094542   2.76182538
   2.78219997   2.7825109    2.79769856   2.80036745   2.8023145
   2.81833931   2.83732116   2.85032369   2.94686176   2.95850554
   3.05764696   3.06448951   3.08149303   3.08844559   3.15470471
   3.16286451   3.18136486   3.18585029   3.22657934   3.22942866
   3.3755837    3.39742584   3.69854859   3.70367046   3.71274128
   3.72117095   4.14985957   4.1533936    4.83248297   4.87793661]
E1 = -1824.0663455686197  E_coul = 747.4402256060856
Extra cycle  E= -493.42884736986  delta_E= -1.18e-11  |g|= 2.47e-06  |ddm|= 8.6e-06
    CPU time for scf_cycle     72.48 sec, wall time     56.34 sec
    CPU time for SCF     72.48 sec, wall time     56.34 sec
converged SCF energy = -493.42884736986
